+ 0 /NodeList/0/DeviceList/2/$ns3::CsmaNetDevice/TxQueue/Enqueue ns3::EthernetHeader ( length/type=0x86dd, source=00:00:00:00:00:0b, destination=33:33:ff:00:00:0b) ns3::Ipv6Header ((Version 6 Traffic class 0x0 DSCP Default Flow Label 0x1 Payload Length 32 Next Header 58 Hop Limit 255 ):: > ff02::1:ff00:b) ns3::Icmpv6NS (( type = 135 (NS) code = 0 target = fe80::200:ff:fe00:b checksum = 64889)) ns3::Icmpv6OptionLinkLayerAddress (( type = 1 length = 1 L2 Address = 00-06-00:00:00:00:00:0b)) ns3::EthernetTrailer (fcs=0)
- 0 /NodeList/0/DeviceList/2/$ns3::CsmaNetDevice/TxQueue/Dequeue ns3::EthernetHeader ( length/type=0x86dd, source=00:00:00:00:00:0b, destination=33:33:ff:00:00:0b) ns3::Ipv6Header ((Version 6 Traffic class 0x0 DSCP Default Flow Label 0x1 Payload Length 32 Next Header 58 Hop Limit 255 ):: > ff02::1:ff00:b) ns3::Icmpv6NS (( type = 135 (NS) code = 0 target = fe80::200:ff:fe00:b checksum = 64889)) ns3::Icmpv6OptionLinkLayerAddress (( type = 1 length = 1 L2 Address = 00-06-00:00:00:00:00:0b)) ns3::EthernetTrailer (fcs=0)
r 1.68e-07 /NodeList/1/DeviceList/2/$ns3::CsmaNetDevice/MacRx ns3::EthernetHeader ( length/type=0x86dd, source=00:00:00:00:00:0b, destination=33:33:ff:00:00:0b) ns3::Ipv6Header ((Version 6 Traffic class 0x0 DSCP Default Flow Label 0x1 Payload Length 32 Next Header 58 Hop Limit 255 ):: > ff02::1:ff00:b) ns3::Icmpv6NS (( type = 135 (NS) code = 0 target = fe80::200:ff:fe00:b checksum = 64889)) ns3::Icmpv6OptionLinkLayerAddress (( type = 1 length = 1 L2 Address = 00-06-00:00:00:00:00:0b)) ns3::EthernetTrailer (fcs=0)
r 1.68e-07 /NodeList/2/DeviceList/2/$ns3::CsmaNetDevice/MacRx ns3::EthernetHeader ( length/type=0x86dd, source=00:00:00:00:00:0b, destination=33:33:ff:00:00:0b) ns3::Ipv6Header ((Version 6 Traffic class 0x0 DSCP Default Flow Label 0x1 Payload Length 32 Next Header 58 Hop Limit 255 ):: > ff02::1:ff00:b) ns3::Icmpv6NS (( type = 135 (NS) code = 0 target = fe80::200:ff:fe00:b checksum = 64889)) ns3::Icmpv6OptionLinkLayerAddress (( type = 1 length = 1 L2 Address = 00-06-00:00:00:00:00:0b)) ns3::EthernetTrailer (fcs=0)
r 1.68e-07 /NodeList/3/DeviceList/2/$ns3::CsmaNetDevice/MacRx ns3::EthernetHeader ( length/type=0x86dd, source=00:00:00:00:00:0b, destination=33:33:ff:00:00:0b) ns3::Ipv6Header ((Version 6 Traffic class 0x0 DSCP Default Flow Label 0x1 Payload Length 32 Next Header 58 Hop Limit 255 ):: > ff02::1:ff00:b) ns3::Icmpv6NS (( type = 135 (NS) code = 0 target = fe80::200:ff:fe00:b checksum = 64889)) ns3::Icmpv6OptionLinkLayerAddress (( type = 1 length = 1 L2 Address = 00-06-00:00:00:00:00:0b)) ns3::EthernetTrailer (fcs=0)
r 1.68e-07 /NodeList/4/DeviceList/2/$ns3::CsmaNetDevice/MacRx ns3::EthernetHeader ( length/type=0x86dd, source=00:00:00:00:00:0b, destination=33:33:ff:00:00:0b) ns3::Ipv6Header ((Version 6 Traffic class 0x0 DSCP Default Flow Label 0x1 Payload Length 32 Next Header 58 Hop Limit 255 ):: > ff02::1:ff00:b) ns3::Icmpv6NS (( type = 135 (NS) code = 0 target = fe80::200:ff:fe00:b checksum = 64889)) ns3::Icmpv6OptionLinkLayerAddress (( type = 1 length = 1 L2 Address = 00-06-00:00:00:00:00:0b)) ns3::EthernetTrailer (fcs=0)
r 1.68e-07 /NodeList/5/DeviceList/2/$ns3::CsmaNetDevice/MacRx ns3::EthernetHeader ( length/type=0x86dd, source=00:00:00:00:00:0b, destination=33:33:ff:00:00:0b) ns3::Ipv6Header ((Version 6 Traffic class 0x0 DSCP Default Flow Label 0x1 Payload Length 32 Next Header 58 Hop Limit 255 ):: > ff02::1:ff00:b) ns3::Icmpv6NS (( type = 135 (NS) code = 0 target = fe80::200:ff:fe00:b checksum = 64889)) ns3::Icmpv6OptionLinkLayerAddress (( type = 1 length = 1 L2 Address = 00-06-00:00:00:00:00:0b)) ns3::EthernetTrailer (fcs=0)
r 1.68e-07 /NodeList/6/DeviceList/2/$ns3::CsmaNetDevice/MacRx ns3::EthernetHeader ( length/type=0x86dd, source=00:00:00:00:00:0b, destination=33:33:ff:00:00:0b) ns3::Ipv6Header ((Version 6 Traffic class 0x0 DSCP Default Flow Label 0x1 Payload Length 32 Next Header 58 Hop Limit 255 ):: > ff02::1:ff00:b) ns3::Icmpv6NS (( type = 135 (NS) code = 0 target = fe80::200:ff:fe00:b checksum = 64889)) ns3::Icmpv6OptionLinkLayerAddress (( type = 1 length = 1 L2 Address = 00-06-00:00:00:00:00:0b)) ns3::EthernetTrailer (fcs=0)
r 1.68e-07 /NodeList/7/DeviceList/2/$ns3::CsmaNetDevice/MacRx ns3::EthernetHeader ( length/type=0x86dd, source=00:00:00:00:00:0b, destination=33:33:ff:00:00:0b) ns3::Ipv6Header ((Version 6 Traffic class 0x0 DSCP Default Flow Label 0x1 Payload Length 32 Next Header 58 Hop Limit 255 ):: > ff02::1:ff00:b) ns3::Icmpv6NS (( type = 135 (NS) code = 0 target = fe80::200:ff:fe00:b checksum = 64889)) ns3::Icmpv6OptionLinkLayerAddress (( type = 1 length = 1 L2 Address = 00-06-00:00:00:00:00:0b)) ns3::EthernetTrailer (fcs=0)
r 1.68e-07 /NodeList/8/DeviceList/2/$ns3::CsmaNetDevice/MacRx ns3::EthernetHeader ( length/type=0x86dd, source=00:00:00:00:00:0b, destination=33:33:ff:00:00:0b) ns3::Ipv6Header ((Version 6 Traffic class 0x0 DSCP Default Flow Label 0x1 Payload Length 32 Next Header 58 Hop Limit 255 ):: > ff02::1:ff00:b) ns3::Icmpv6NS (( type = 135 (NS) code = 0 target = fe80::200:ff:fe00:b checksum = 64889)) ns3::Icmpv6OptionLinkLayerAddress (( type = 1 length = 1 L2 Address = 00-06-00:00:00:00:00:0b)) ns3::EthernetTrailer (fcs=0)
r 1.68e-07 /NodeList/9/DeviceList/2/$ns3::CsmaNetDevice/MacRx ns3::EthernetHeader ( length/type=0x86dd, source=00:00:00:00:00:0b, destination=33:33:ff:00:00:0b) ns3::Ipv6Header ((Version 6 Traffic class 0x0 DSCP Default Flow Label 0x1 Payload Length 32 Next Header 58 Hop Limit 255 ):: > ff02::1:ff00:b) ns3::Icmpv6NS (( type = 135 (NS) code = 0 target = fe80::200:ff:fe00:b checksum = 64889)) ns3::Icmpv6OptionLinkLayerAddress (( type = 1 length = 1 L2 Address = 00-06-00:00:00:00:00:0b)) ns3::EthernetTrailer (fcs=0)
+ 0.001 /NodeList/1/DeviceList/2/$ns3::CsmaNetDevice/TxQueue/Enqueue ns3::EthernetHeader ( length/type=0x86dd, source=00:00:00:00:00:0c, destination=33:33:ff:00:00:0c) ns3::Ipv6Header ((Version 6 Traffic class 0x0 DSCP Default Flow Label 0x1 Payload Length 32 Next Header 58 Hop Limit 255 ):: > ff02::1:ff00:c) ns3::Icmpv6NS (( type = 135 (NS) code = 0 target = 2001:1::200:ff:fe00:c checksum = 31064)) ns3::Icmpv6OptionLinkLayerAddress (( type = 1 length = 1 L2 Address = 00-06-00:00:00:00:00:0c)) ns3::EthernetTrailer (fcs=0)
- 0.001 /NodeList/1/DeviceList/2/$ns3::CsmaNetDevice/TxQueue/Dequeue ns3::EthernetHeader ( length/type=0x86dd, source=00:00:00:00:00:0c, destination=33:33:ff:00:00:0c) ns3::Ipv6Header ((Version 6 Traffic class 0x0 DSCP Default Flow Label 0x1 Payload Length 32 Next Header 58 Hop Limit 255 ):: > ff02::1:ff00:c) ns3::Icmpv6NS (( type = 135 (NS) code = 0 target = 2001:1::200:ff:fe00:c checksum = 31064)) ns3::Icmpv6OptionLinkLayerAddress (( type = 1 length = 1 L2 Address = 00-06-00:00:00:00:00:0c)) ns3::EthernetTrailer (fcs=0)
+ 0.001 /NodeList/9/DeviceList/2/$ns3::CsmaNetDevice/TxQueue/Enqueue ns3::EthernetHeader ( length/type=0x86dd, source=00:00:00:00:00:14, destination=33:33:ff:00:00:14) ns3::Ipv6Header ((Version 6 Traffic class 0x0 DSCP Default Flow Label 0x1 Payload Length 32 Next Header 58 Hop Limit 255 ):: > ff02::1:ff00:14) ns3::Icmpv6NS (( type = 135 (NS) code = 0 target = fe80::200:ff:fe00:14 checksum = 57977)) ns3::Icmpv6OptionLinkLayerAddress (( type = 1 length = 1 L2 Address = 00-06-00:00:00:00:00:14)) ns3::EthernetTrailer (fcs=0)
- 0.001 /NodeList/9/DeviceList/2/$ns3::CsmaNetDevice/TxQueue/Dequeue ns3::EthernetHeader ( length/type=0x86dd, source=00:00:00:00:00:14, destination=33:33:ff:00:00:14) ns3::Ipv6Header ((Version 6 Traffic class 0x0 DSCP Default Flow Label 0x1 Payload Length 32 Next Header 58 Hop Limit 255 ):: > ff02::1:ff00:14) ns3::Icmpv6NS (( type = 135 (NS) code = 0 target = fe80::200:ff:fe00:14 checksum = 57977)) ns3::Icmpv6OptionLinkLayerAddress (( type = 1 length = 1 L2 Address = 00-06-00:00:00:00:00:14)) ns3::EthernetTrailer (fcs=0)
r 0.00100017 /NodeList/0/DeviceList/2/$ns3::CsmaNetDevice/MacRx ns3::EthernetHeader ( length/type=0x86dd, source=00:00:00:00:00:0c, destination=33:33:ff:00:00:0c) ns3::Ipv6Header ((Version 6 Traffic class 0x0 DSCP Default Flow Label 0x1 Payload Length 32 Next Header 58 Hop Limit 255 ):: > ff02::1:ff00:c) ns3::Icmpv6NS (( type = 135 (NS) code = 0 target = 2001:1::200:ff:fe00:c checksum = 31064)) ns3::Icmpv6OptionLinkLayerAddress (( type = 1 length = 1 L2 Address = 00-06-00:00:00:00:00:0c)) ns3::EthernetTrailer (fcs=0)
r 0.00100017 /NodeList/2/DeviceList/2/$ns3::CsmaNetDevice/MacRx ns3::EthernetHeader ( length/type=0x86dd, source=00:00:00:00:00:0c, destination=33:33:ff:00:00:0c) ns3::Ipv6Header ((Version 6 Traffic class 0x0 DSCP Default Flow Label 0x1 Payload Length 32 Next Header 58 Hop Limit 255 ):: > ff02::1:ff00:c) ns3::Icmpv6NS (( type = 135 (NS) code = 0 target = 2001:1::200:ff:fe00:c checksum = 31064)) ns3::Icmpv6OptionLinkLayerAddress (( type = 1 length = 1 L2 Address = 00-06-00:00:00:00:00:0c)) ns3::EthernetTrailer (fcs=0)
r 0.00100017 /NodeList/3/DeviceList/2/$ns3::CsmaNetDevice/MacRx ns3::EthernetHeader ( length/type=0x86dd, source=00:00:00:00:00:0c, destination=33:33:ff:00:00:0c) ns3::Ipv6Header ((Version 6 Traffic class 0x0 DSCP Default Flow Label 0x1 Payload Length 32 Next Header 58 Hop Limit 255 ):: > ff02::1:ff00:c) ns3::Icmpv6NS (( type = 135 (NS) code = 0 target = 2001:1::200:ff:fe00:c checksum = 31064)) ns3::Icmpv6OptionLinkLayerAddress (( type = 1 length = 1 L2 Address = 00-06-00:00:00:00:00:0c)) ns3::EthernetTrailer (fcs=0)
r 0.00100017 /NodeList/4/DeviceList/2/$ns3::CsmaNetDevice/MacRx ns3::EthernetHeader ( length/type=0x86dd, source=00:00:00:00:00:0c, destination=33:33:ff:00:00:0c) ns3::Ipv6Header ((Version 6 Traffic class 0x0 DSCP Default Flow Label 0x1 Payload Length 32 Next Header 58 Hop Limit 255 ):: > ff02::1:ff00:c) ns3::Icmpv6NS (( type = 135 (NS) code = 0 target = 2001:1::200:ff:fe00:c checksum = 31064)) ns3::Icmpv6OptionLinkLayerAddress (( type = 1 length = 1 L2 Address = 00-06-00:00:00:00:00:0c)) ns3::EthernetTrailer (fcs=0)
r 0.00100017 /NodeList/5/DeviceList/2/$ns3::CsmaNetDevice/MacRx ns3::EthernetHeader ( length/type=0x86dd, source=00:00:00:00:00:0c, destination=33:33:ff:00:00:0c) ns3::Ipv6Header ((Version 6 Traffic class 0x0 DSCP Default Flow Label 0x1 Payload Length 32 Next Header 58 Hop Limit 255 ):: > ff02::1:ff00:c) ns3::Icmpv6NS (( type = 135 (NS) code = 0 target = 2001:1::200:ff:fe00:c checksum = 31064)) ns3::Icmpv6OptionLinkLayerAddress (( type = 1 length = 1 L2 Address = 00-06-00:00:00:00:00:0c)) ns3::EthernetTrailer (fcs=0)
r 0.00100017 /NodeList/6/DeviceList/2/$ns3::CsmaNetDevice/MacRx ns3::EthernetHeader ( length/type=0x86dd, source=00:00:00:00:00:0c, destination=33:33:ff:00:00:0c) ns3::Ipv6Header ((Version 6 Traffic class 0x0 DSCP Default Flow Label 0x1 Payload Length 32 Next Header 58 Hop Limit 255 ):: > ff02::1:ff00:c) ns3::Icmpv6NS (( type = 135 (NS) code = 0 target = 2001:1::200:ff:fe00:c checksum = 31064)) ns3::Icmpv6OptionLinkLayerAddress (( type = 1 length = 1 L2 Address = 00-06-00:00:00:00:00:0c)) ns3::EthernetTrailer (fcs=0)
r 0.00100017 /NodeList/7/DeviceList/2/$ns3::CsmaNetDevice/MacRx ns3::EthernetHeader ( length/type=0x86dd, source=00:00:00:00:00:0c, destination=33:33:ff:00:00:0c) ns3::Ipv6Header ((Version 6 Traffic class 0x0 DSCP Default Flow Label 0x1 Payload Length 32 Next Header 58 Hop Limit 255 ):: > ff02::1:ff00:c) ns3::Icmpv6NS (( type = 135 (NS) code = 0 target = 2001:1::200:ff:fe00:c checksum = 31064)) ns3::Icmpv6OptionLinkLayerAddress (( type = 1 length = 1 L2 Address = 00-06-00:00:00:00:00:0c)) ns3::EthernetTrailer (fcs=0)
r 0.00100017 /NodeList/8/DeviceList/2/$ns3::CsmaNetDevice/MacRx ns3::EthernetHeader ( length/type=0x86dd, source=00:00:00:00:00:0c, destination=33:33:ff:00:00:0c) ns3::Ipv6Header ((Version 6 Traffic class 0x0 DSCP Default Flow Label 0x1 Payload Length 32 Next Header 58 Hop Limit 255 ):: > ff02::1:ff00:c) ns3::Icmpv6NS (( type = 135 (NS) code = 0 target = 2001:1::200:ff:fe00:c checksum = 31064)) ns3::Icmpv6OptionLinkLayerAddress (( type = 1 length = 1 L2 Address = 00-06-00:00:00:00:00:0c)) ns3::EthernetTrailer (fcs=0)
r 0.00100017 /NodeList/9/DeviceList/2/$ns3::CsmaNetDevice/MacRx ns3::EthernetHeader ( length/type=0x86dd, source=00:00:00:00:00:0c, destination=33:33:ff:00:00:0c) ns3::Ipv6Header ((Version 6 Traffic class 0x0 DSCP Default Flow Label 0x1 Payload Length 32 Next Header 58 Hop Limit 255 ):: > ff02::1:ff00:c) ns3::Icmpv6NS (( type = 135 (NS) code = 0 target = 2001:1::200:ff:fe00:c checksum = 31064)) ns3::Icmpv6OptionLinkLayerAddress (( type = 1 length = 1 L2 Address = 00-06-00:00:00:00:00:0c)) ns3::EthernetTrailer (fcs=0)
r 0.00100117 /NodeList/0/DeviceList/2/$ns3::CsmaNetDevice/MacRx ns3::EthernetHeader ( length/type=0x86dd, source=00:00:00:00:00:14, destination=33:33:ff:00:00:14) ns3::Ipv6Header ((Version 6 Traffic class 0x0 DSCP Default Flow Label 0x1 Payload Length 32 Next Header 58 Hop Limit 255 ):: > ff02::1:ff00:14) ns3::Icmpv6NS (( type = 135 (NS) code = 0 target = fe80::200:ff:fe00:14 checksum = 57977)) ns3::Icmpv6OptionLinkLayerAddress (( type = 1 length = 1 L2 Address = 00-06-00:00:00:00:00:14)) ns3::EthernetTrailer (fcs=0)
r 0.00100117 /NodeList/1/DeviceList/2/$ns3::CsmaNetDevice/MacRx ns3::EthernetHeader ( length/type=0x86dd, source=00:00:00:00:00:14, destination=33:33:ff:00:00:14) ns3::Ipv6Header ((Version 6 Traffic class 0x0 DSCP Default Flow Label 0x1 Payload Length 32 Next Header 58 Hop Limit 255 ):: > ff02::1:ff00:14) ns3::Icmpv6NS (( type = 135 (NS) code = 0 target = fe80::200:ff:fe00:14 checksum = 57977)) ns3::Icmpv6OptionLinkLayerAddress (( type = 1 length = 1 L2 Address = 00-06-00:00:00:00:00:14)) ns3::EthernetTrailer (fcs=0)
r 0.00100117 /NodeList/2/DeviceList/2/$ns3::CsmaNetDevice/MacRx ns3::EthernetHeader ( length/type=0x86dd, source=00:00:00:00:00:14, destination=33:33:ff:00:00:14) ns3::Ipv6Header ((Version 6 Traffic class 0x0 DSCP Default Flow Label 0x1 Payload Length 32 Next Header 58 Hop Limit 255 ):: > ff02::1:ff00:14) ns3::Icmpv6NS (( type = 135 (NS) code = 0 target = fe80::200:ff:fe00:14 checksum = 57977)) ns3::Icmpv6OptionLinkLayerAddress (( type = 1 length = 1 L2 Address = 00-06-00:00:00:00:00:14)) ns3::EthernetTrailer (fcs=0)
r 0.00100117 /NodeList/3/DeviceList/2/$ns3::CsmaNetDevice/MacRx ns3::EthernetHeader ( length/type=0x86dd, source=00:00:00:00:00:14, destination=33:33:ff:00:00:14) ns3::Ipv6Header ((Version 6 Traffic class 0x0 DSCP Default Flow Label 0x1 Payload Length 32 Next Header 58 Hop Limit 255 ):: > ff02::1:ff00:14) ns3::Icmpv6NS (( type = 135 (NS) code = 0 target = fe80::200:ff:fe00:14 checksum = 57977)) ns3::Icmpv6OptionLinkLayerAddress (( type = 1 length = 1 L2 Address = 00-06-00:00:00:00:00:14)) ns3::EthernetTrailer (fcs=0)
r 0.00100117 /NodeList/4/DeviceList/2/$ns3::CsmaNetDevice/MacRx ns3::EthernetHeader ( length/type=0x86dd, source=00:00:00:00:00:14, destination=33:33:ff:00:00:14) ns3::Ipv6Header ((Version 6 Traffic class 0x0 DSCP Default Flow Label 0x1 Payload Length 32 Next Header 58 Hop Limit 255 ):: > ff02::1:ff00:14) ns3::Icmpv6NS (( type = 135 (NS) code = 0 target = fe80::200:ff:fe00:14 checksum = 57977)) ns3::Icmpv6OptionLinkLayerAddress (( type = 1 length = 1 L2 Address = 00-06-00:00:00:00:00:14)) ns3::EthernetTrailer (fcs=0)
r 0.00100117 /NodeList/5/DeviceList/2/$ns3::CsmaNetDevice/MacRx ns3::EthernetHeader ( length/type=0x86dd, source=00:00:00:00:00:14, destination=33:33:ff:00:00:14) ns3::Ipv6Header ((Version 6 Traffic class 0x0 DSCP Default Flow Label 0x1 Payload Length 32 Next Header 58 Hop Limit 255 ):: > ff02::1:ff00:14) ns3::Icmpv6NS (( type = 135 (NS) code = 0 target = fe80::200:ff:fe00:14 checksum = 57977)) ns3::Icmpv6OptionLinkLayerAddress (( type = 1 length = 1 L2 Address = 00-06-00:00:00:00:00:14)) ns3::EthernetTrailer (fcs=0)
r 0.00100117 /NodeList/6/DeviceList/2/$ns3::CsmaNetDevice/MacRx ns3::EthernetHeader ( length/type=0x86dd, source=00:00:00:00:00:14, destination=33:33:ff:00:00:14) ns3::Ipv6Header ((Version 6 Traffic class 0x0 DSCP Default Flow Label 0x1 Payload Length 32 Next Header 58 Hop Limit 255 ):: > ff02::1:ff00:14) ns3::Icmpv6NS (( type = 135 (NS) code = 0 target = fe80::200:ff:fe00:14 checksum = 57977)) ns3::Icmpv6OptionLinkLayerAddress (( type = 1 length = 1 L2 Address = 00-06-00:00:00:00:00:14)) ns3::EthernetTrailer (fcs=0)
r 0.00100117 /NodeList/7/DeviceList/2/$ns3::CsmaNetDevice/MacRx ns3::EthernetHeader ( length/type=0x86dd, source=00:00:00:00:00:14, destination=33:33:ff:00:00:14) ns3::Ipv6Header ((Version 6 Traffic class 0x0 DSCP Default Flow Label 0x1 Payload Length 32 Next Header 58 Hop Limit 255 ):: > ff02::1:ff00:14) ns3::Icmpv6NS (( type = 135 (NS) code = 0 target = fe80::200:ff:fe00:14 checksum = 57977)) ns3::Icmpv6OptionLinkLayerAddress (( type = 1 length = 1 L2 Address = 00-06-00:00:00:00:00:14)) ns3::EthernetTrailer (fcs=0)
r 0.00100117 /NodeList/8/DeviceList/2/$ns3::CsmaNetDevice/MacRx ns3::EthernetHeader ( length/type=0x86dd, source=00:00:00:00:00:14, destination=33:33:ff:00:00:14) ns3::Ipv6Header ((Version 6 Traffic class 0x0 DSCP Default Flow Label 0x1 Payload Length 32 Next Header 58 Hop Limit 255 ):: > ff02::1:ff00:14) ns3::Icmpv6NS (( type = 135 (NS) code = 0 target = fe80::200:ff:fe00:14 checksum = 57977)) ns3::Icmpv6OptionLinkLayerAddress (( type = 1 length = 1 L2 Address = 00-06-00:00:00:00:00:14)) ns3::EthernetTrailer (fcs=0)
+ 0.002 /NodeList/4/DeviceList/2/$ns3::CsmaNetDevice/TxQueue/Enqueue ns3::EthernetHeader ( length/type=0x86dd, source=00:00:00:00:00:0f, destination=33:33:ff:00:00:0f) ns3::Ipv6Header ((Version 6 Traffic class 0x0 DSCP Default Flow Label 0x1 Payload Length 32 Next Header 58 Hop Limit 255 ):: > ff02::1:ff00:f) ns3::Icmpv6NS (( type = 135 (NS) code = 0 target = 2001:1::200:ff:fe00:f checksum = 28760)) ns3::Icmpv6OptionLinkLayerAddress (( type = 1 length = 1 L2 Address = 00-06-00:00:00:00:00:0f)) ns3::EthernetTrailer (fcs=0)
- 0.002 /NodeList/4/DeviceList/2/$ns3::CsmaNetDevice/TxQueue/Dequeue ns3::EthernetHeader ( length/type=0x86dd, source=00:00:00:00:00:0f, destination=33:33:ff:00:00:0f) ns3::Ipv6Header ((Version 6 Traffic class 0x0 DSCP Default Flow Label 0x1 Payload Length 32 Next Header 58 Hop Limit 255 ):: > ff02::1:ff00:f) ns3::Icmpv6NS (( type = 135 (NS) code = 0 target = 2001:1::200:ff:fe00:f checksum = 28760)) ns3::Icmpv6OptionLinkLayerAddress (( type = 1 length = 1 L2 Address = 00-06-00:00:00:00:00:0f)) ns3::EthernetTrailer (fcs=0)
+ 0.002 /NodeList/6/DeviceList/2/$ns3::CsmaNetDevice/TxQueue/Enqueue ns3::EthernetHeader ( length/type=0x86dd, source=00:00:00:00:00:11, destination=33:33:ff:00:00:11) ns3::Ipv6Header ((Version 6 Traffic class 0x0 DSCP Default Flow Label 0x1 Payload Length 32 Next Header 58 Hop Limit 255 ):: > ff02::1:ff00:11) ns3::Icmpv6NS (( type = 135 (NS) code = 0 target = 2001:1::200:ff:fe00:11 checksum = 27224)) ns3::Icmpv6OptionLinkLayerAddress (( type = 1 length = 1 L2 Address = 00-06-00:00:00:00:00:11)) ns3::EthernetTrailer (fcs=0)
- 0.002 /NodeList/6/DeviceList/2/$ns3::CsmaNetDevice/TxQueue/Dequeue ns3::EthernetHeader ( length/type=0x86dd, source=00:00:00:00:00:11, destination=33:33:ff:00:00:11) ns3::Ipv6Header ((Version 6 Traffic class 0x0 DSCP Default Flow Label 0x1 Payload Length 32 Next Header 58 Hop Limit 255 ):: > ff02::1:ff00:11) ns3::Icmpv6NS (( type = 135 (NS) code = 0 target = 2001:1::200:ff:fe00:11 checksum = 27224)) ns3::Icmpv6OptionLinkLayerAddress (( type = 1 length = 1 L2 Address = 00-06-00:00:00:00:00:11)) ns3::EthernetTrailer (fcs=0)
+ 0.002 /NodeList/8/DeviceList/2/$ns3::CsmaNetDevice/TxQueue/Enqueue ns3::EthernetHeader ( length/type=0x86dd, source=00:00:00:00:00:13, destination=33:33:ff:00:00:13) ns3::Ipv6Header ((Version 6 Traffic class 0x0 DSCP Default Flow Label 0x1 Payload Length 32 Next Header 58 Hop Limit 255 ):: > ff02::1:ff00:13) ns3::Icmpv6NS (( type = 135 (NS) code = 0 target = 2001:1::200:ff:fe00:13 checksum = 25688)) ns3::Icmpv6OptionLinkLayerAddress (( type = 1 length = 1 L2 Address = 00-06-00:00:00:00:00:13)) ns3::EthernetTrailer (fcs=0)
- 0.002 /NodeList/8/DeviceList/2/$ns3::CsmaNetDevice/TxQueue/Dequeue ns3::EthernetHeader ( length/type=0x86dd, source=00:00:00:00:00:13, destination=33:33:ff:00:00:13) ns3::Ipv6Header ((Version 6 Traffic class 0x0 DSCP Default Flow Label 0x1 Payload Length 32 Next Header 58 Hop Limit 255 ):: > ff02::1:ff00:13) ns3::Icmpv6NS (( type = 135 (NS) code = 0 target = 2001:1::200:ff:fe00:13 checksum = 25688)) ns3::Icmpv6OptionLinkLayerAddress (( type = 1 length = 1 L2 Address = 00-06-00:00:00:00:00:13)) ns3::EthernetTrailer (fcs=0)
r 0.00200017 /NodeList/0/DeviceList/2/$ns3::CsmaNetDevice/MacRx ns3::EthernetHeader ( length/type=0x86dd, source=00:00:00:00:00:0f, destination=33:33:ff:00:00:0f) ns3::Ipv6Header ((Version 6 Traffic class 0x0 DSCP Default Flow Label 0x1 Payload Length 32 Next Header 58 Hop Limit 255 ):: > ff02::1:ff00:f) ns3::Icmpv6NS (( type = 135 (NS) code = 0 target = 2001:1::200:ff:fe00:f checksum = 28760)) ns3::Icmpv6OptionLinkLayerAddress (( type = 1 length = 1 L2 Address = 00-06-00:00:00:00:00:0f)) ns3::EthernetTrailer (fcs=0)
r 0.00200017 /NodeList/1/DeviceList/2/$ns3::CsmaNetDevice/MacRx ns3::EthernetHeader ( length/type=0x86dd, source=00:00:00:00:00:0f, destination=33:33:ff:00:00:0f) ns3::Ipv6Header ((Version 6 Traffic class 0x0 DSCP Default Flow Label 0x1 Payload Length 32 Next Header 58 Hop Limit 255 ):: > ff02::1:ff00:f) ns3::Icmpv6NS (( type = 135 (NS) code = 0 target = 2001:1::200:ff:fe00:f checksum = 28760)) ns3::Icmpv6OptionLinkLayerAddress (( type = 1 length = 1 L2 Address = 00-06-00:00:00:00:00:0f)) ns3::EthernetTrailer (fcs=0)
r 0.00200017 /NodeList/2/DeviceList/2/$ns3::CsmaNetDevice/MacRx ns3::EthernetHeader ( length/type=0x86dd, source=00:00:00:00:00:0f, destination=33:33:ff:00:00:0f) ns3::Ipv6Header ((Version 6 Traffic class 0x0 DSCP Default Flow Label 0x1 Payload Length 32 Next Header 58 Hop Limit 255 ):: > ff02::1:ff00:f) ns3::Icmpv6NS (( type = 135 (NS) code = 0 target = 2001:1::200:ff:fe00:f checksum = 28760)) ns3::Icmpv6OptionLinkLayerAddress (( type = 1 length = 1 L2 Address = 00-06-00:00:00:00:00:0f)) ns3::EthernetTrailer (fcs=0)
r 0.00200017 /NodeList/3/DeviceList/2/$ns3::CsmaNetDevice/MacRx ns3::EthernetHeader ( length/type=0x86dd, source=00:00:00:00:00:0f, destination=33:33:ff:00:00:0f) ns3::Ipv6Header ((Version 6 Traffic class 0x0 DSCP Default Flow Label 0x1 Payload Length 32 Next Header 58 Hop Limit 255 ):: > ff02::1:ff00:f) ns3::Icmpv6NS (( type = 135 (NS) code = 0 target = 2001:1::200:ff:fe00:f checksum = 28760)) ns3::Icmpv6OptionLinkLayerAddress (( type = 1 length = 1 L2 Address = 00-06-00:00:00:00:00:0f)) ns3::EthernetTrailer (fcs=0)
r 0.00200017 /NodeList/5/DeviceList/2/$ns3::CsmaNetDevice/MacRx ns3::EthernetHeader ( length/type=0x86dd, source=00:00:00:00:00:0f, destination=33:33:ff:00:00:0f) ns3::Ipv6Header ((Version 6 Traffic class 0x0 DSCP Default Flow Label 0x1 Payload Length 32 Next Header 58 Hop Limit 255 ):: > ff02::1:ff00:f) ns3::Icmpv6NS (( type = 135 (NS) code = 0 target = 2001:1::200:ff:fe00:f checksum = 28760)) ns3::Icmpv6OptionLinkLayerAddress (( type = 1 length = 1 L2 Address = 00-06-00:00:00:00:00:0f)) ns3::EthernetTrailer (fcs=0)
r 0.00200017 /NodeList/6/DeviceList/2/$ns3::CsmaNetDevice/MacRx ns3::EthernetHeader ( length/type=0x86dd, source=00:00:00:00:00:0f, destination=33:33:ff:00:00:0f) ns3::Ipv6Header ((Version 6 Traffic class 0x0 DSCP Default Flow Label 0x1 Payload Length 32 Next Header 58 Hop Limit 255 ):: > ff02::1:ff00:f) ns3::Icmpv6NS (( type = 135 (NS) code = 0 target = 2001:1::200:ff:fe00:f checksum = 28760)) ns3::Icmpv6OptionLinkLayerAddress (( type = 1 length = 1 L2 Address = 00-06-00:00:00:00:00:0f)) ns3::EthernetTrailer (fcs=0)
r 0.00200017 /NodeList/7/DeviceList/2/$ns3::CsmaNetDevice/MacRx ns3::EthernetHeader ( length/type=0x86dd, source=00:00:00:00:00:0f, destination=33:33:ff:00:00:0f) ns3::Ipv6Header ((Version 6 Traffic class 0x0 DSCP Default Flow Label 0x1 Payload Length 32 Next Header 58 Hop Limit 255 ):: > ff02::1:ff00:f) ns3::Icmpv6NS (( type = 135 (NS) code = 0 target = 2001:1::200:ff:fe00:f checksum = 28760)) ns3::Icmpv6OptionLinkLayerAddress (( type = 1 length = 1 L2 Address = 00-06-00:00:00:00:00:0f)) ns3::EthernetTrailer (fcs=0)
r 0.00200017 /NodeList/8/DeviceList/2/$ns3::CsmaNetDevice/MacRx ns3::EthernetHeader ( length/type=0x86dd, source=00:00:00:00:00:0f, destination=33:33:ff:00:00:0f) ns3::Ipv6Header ((Version 6 Traffic class 0x0 DSCP Default Flow Label 0x1 Payload Length 32 Next Header 58 Hop Limit 255 ):: > ff02::1:ff00:f) ns3::Icmpv6NS (( type = 135 (NS) code = 0 target = 2001:1::200:ff:fe00:f checksum = 28760)) ns3::Icmpv6OptionLinkLayerAddress (( type = 1 length = 1 L2 Address = 00-06-00:00:00:00:00:0f)) ns3::EthernetTrailer (fcs=0)
r 0.00200017 /NodeList/9/DeviceList/2/$ns3::CsmaNetDevice/MacRx ns3::EthernetHeader ( length/type=0x86dd, source=00:00:00:00:00:0f, destination=33:33:ff:00:00:0f) ns3::Ipv6Header ((Version 6 Traffic class 0x0 DSCP Default Flow Label 0x1 Payload Length 32 Next Header 58 Hop Limit 255 ):: > ff02::1:ff00:f) ns3::Icmpv6NS (( type = 135 (NS) code = 0 target = 2001:1::200:ff:fe00:f checksum = 28760)) ns3::Icmpv6OptionLinkLayerAddress (( type = 1 length = 1 L2 Address = 00-06-00:00:00:00:00:0f)) ns3::EthernetTrailer (fcs=0)
r 0.00200117 /NodeList/0/DeviceList/2/$ns3::CsmaNetDevice/MacRx ns3::EthernetHeader ( length/type=0x86dd, source=00:00:00:00:00:11, destination=33:33:ff:00:00:11) ns3::Ipv6Header ((Version 6 Traffic class 0x0 DSCP Default Flow Label 0x1 Payload Length 32 Next Header 58 Hop Limit 255 ):: > ff02::1:ff00:11) ns3::Icmpv6NS (( type = 135 (NS) code = 0 target = 2001:1::200:ff:fe00:11 checksum = 27224)) ns3::Icmpv6OptionLinkLayerAddress (( type = 1 length = 1 L2 Address = 00-06-00:00:00:00:00:11)) ns3::EthernetTrailer (fcs=0)
r 0.00200117 /NodeList/1/DeviceList/2/$ns3::CsmaNetDevice/MacRx ns3::EthernetHeader ( length/type=0x86dd, source=00:00:00:00:00:11, destination=33:33:ff:00:00:11) ns3::Ipv6Header ((Version 6 Traffic class 0x0 DSCP Default Flow Label 0x1 Payload Length 32 Next Header 58 Hop Limit 255 ):: > ff02::1:ff00:11) ns3::Icmpv6NS (( type = 135 (NS) code = 0 target = 2001:1::200:ff:fe00:11 checksum = 27224)) ns3::Icmpv6OptionLinkLayerAddress (( type = 1 length = 1 L2 Address = 00-06-00:00:00:00:00:11)) ns3::EthernetTrailer (fcs=0)
r 0.00200117 /NodeList/2/DeviceList/2/$ns3::CsmaNetDevice/MacRx ns3::EthernetHeader ( length/type=0x86dd, source=00:00:00:00:00:11, destination=33:33:ff:00:00:11) ns3::Ipv6Header ((Version 6 Traffic class 0x0 DSCP Default Flow Label 0x1 Payload Length 32 Next Header 58 Hop Limit 255 ):: > ff02::1:ff00:11) ns3::Icmpv6NS (( type = 135 (NS) code = 0 target = 2001:1::200:ff:fe00:11 checksum = 27224)) ns3::Icmpv6OptionLinkLayerAddress (( type = 1 length = 1 L2 Address = 00-06-00:00:00:00:00:11)) ns3::EthernetTrailer (fcs=0)
r 0.00200117 /NodeList/3/DeviceList/2/$ns3::CsmaNetDevice/MacRx ns3::EthernetHeader ( length/type=0x86dd, source=00:00:00:00:00:11, destination=33:33:ff:00:00:11) ns3::Ipv6Header ((Version 6 Traffic class 0x0 DSCP Default Flow Label 0x1 Payload Length 32 Next Header 58 Hop Limit 255 ):: > ff02::1:ff00:11) ns3::Icmpv6NS (( type = 135 (NS) code = 0 target = 2001:1::200:ff:fe00:11 checksum = 27224)) ns3::Icmpv6OptionLinkLayerAddress (( type = 1 length = 1 L2 Address = 00-06-00:00:00:00:00:11)) ns3::EthernetTrailer (fcs=0)
r 0.00200117 /NodeList/4/DeviceList/2/$ns3::CsmaNetDevice/MacRx ns3::EthernetHeader ( length/type=0x86dd, source=00:00:00:00:00:11, destination=33:33:ff:00:00:11) ns3::Ipv6Header ((Version 6 Traffic class 0x0 DSCP Default Flow Label 0x1 Payload Length 32 Next Header 58 Hop Limit 255 ):: > ff02::1:ff00:11) ns3::Icmpv6NS (( type = 135 (NS) code = 0 target = 2001:1::200:ff:fe00:11 checksum = 27224)) ns3::Icmpv6OptionLinkLayerAddress (( type = 1 length = 1 L2 Address = 00-06-00:00:00:00:00:11)) ns3::EthernetTrailer (fcs=0)
r 0.00200117 /NodeList/5/DeviceList/2/$ns3::CsmaNetDevice/MacRx ns3::EthernetHeader ( length/type=0x86dd, source=00:00:00:00:00:11, destination=33:33:ff:00:00:11) ns3::Ipv6Header ((Version 6 Traffic class 0x0 DSCP Default Flow Label 0x1 Payload Length 32 Next Header 58 Hop Limit 255 ):: > ff02::1:ff00:11) ns3::Icmpv6NS (( type = 135 (NS) code = 0 target = 2001:1::200:ff:fe00:11 checksum = 27224)) ns3::Icmpv6OptionLinkLayerAddress (( type = 1 length = 1 L2 Address = 00-06-00:00:00:00:00:11)) ns3::EthernetTrailer (fcs=0)
r 0.00200117 /NodeList/7/DeviceList/2/$ns3::CsmaNetDevice/MacRx ns3::EthernetHeader ( length/type=0x86dd, source=00:00:00:00:00:11, destination=33:33:ff:00:00:11) ns3::Ipv6Header ((Version 6 Traffic class 0x0 DSCP Default Flow Label 0x1 Payload Length 32 Next Header 58 Hop Limit 255 ):: > ff02::1:ff00:11) ns3::Icmpv6NS (( type = 135 (NS) code = 0 target = 2001:1::200:ff:fe00:11 checksum = 27224)) ns3::Icmpv6OptionLinkLayerAddress (( type = 1 length = 1 L2 Address = 00-06-00:00:00:00:00:11)) ns3::EthernetTrailer (fcs=0)
r 0.00200117 /NodeList/8/DeviceList/2/$ns3::CsmaNetDevice/MacRx ns3::EthernetHeader ( length/type=0x86dd, source=00:00:00:00:00:11, destination=33:33:ff:00:00:11) ns3::Ipv6Header ((Version 6 Traffic class 0x0 DSCP Default Flow Label 0x1 Payload Length 32 Next Header 58 Hop Limit 255 ):: > ff02::1:ff00:11) ns3::Icmpv6NS (( type = 135 (NS) code = 0 target = 2001:1::200:ff:fe00:11 checksum = 27224)) ns3::Icmpv6OptionLinkLayerAddress (( type = 1 length = 1 L2 Address = 00-06-00:00:00:00:00:11)) ns3::EthernetTrailer (fcs=0)
r 0.00200117 /NodeList/9/DeviceList/2/$ns3::CsmaNetDevice/MacRx ns3::EthernetHeader ( length/type=0x86dd, source=00:00:00:00:00:11, destination=33:33:ff:00:00:11) ns3::Ipv6Header ((Version 6 Traffic class 0x0 DSCP Default Flow Label 0x1 Payload Length 32 Next Header 58 Hop Limit 255 ):: > ff02::1:ff00:11) ns3::Icmpv6NS (( type = 135 (NS) code = 0 target = 2001:1::200:ff:fe00:11 checksum = 27224)) ns3::Icmpv6OptionLinkLayerAddress (( type = 1 length = 1 L2 Address = 00-06-00:00:00:00:00:11)) ns3::EthernetTrailer (fcs=0)